# vtk DataFile Version 3.0
VTK output from Fortran
ASCII
DATASET STRUCTURED_GRID
DIMENSIONS    9    1    9
POINTS   81 float
   0.00000   1.00000   0.00000
   0.12500   1.00000   0.00000
   0.25000   1.00000   0.00000
   0.37500   1.00000   0.00000
   0.50000   1.00000   0.00000
   0.62500   1.00000   0.00000
   0.75000   1.00000   0.00000
   0.87500   1.00000   0.00000
   1.00000   1.00000   0.00000
   0.00000   1.00000   0.12500
   0.12500   1.00000   0.12500
   0.25000   1.00000   0.12500
   0.37500   1.00000   0.12500
   0.50000   1.00000   0.12500
   0.62500   1.00000   0.12500
   0.75000   1.00000   0.12500
   0.87500   1.00000   0.12500
   1.00000   1.00000   0.12500
   0.00000   1.00000   0.25000
   0.12500   1.00000   0.25000
   0.25000   1.00000   0.25000
   0.37500   1.00000   0.25000
   0.50000   1.00000   0.25000
   0.62500   1.00000   0.25000
   0.75000   1.00000   0.25000
   0.87500   1.00000   0.25000
   1.00000   1.00000   0.25000
   0.00000   1.00000   0.37500
   0.12500   1.00000   0.37500
   0.25000   1.00000   0.37500
   0.37500   1.00000   0.37500
   0.50000   1.00000   0.37500
   0.62500   1.00000   0.37500
   0.75000   1.00000   0.37500
   0.87500   1.00000   0.37500
   1.00000   1.00000   0.37500
   0.00000   1.00000   0.50000
   0.12500   1.00000   0.50000
   0.25000   1.00000   0.50000
   0.37500   1.00000   0.50000
   0.50000   1.00000   0.50000
   0.62500   1.00000   0.50000
   0.75000   1.00000   0.50000
   0.87500   1.00000   0.50000
   1.00000   1.00000   0.50000
   0.00000   1.00000   0.62500
   0.12500   1.00000   0.62500
   0.25000   1.00000   0.62500
   0.37500   1.00000   0.62500
   0.50000   1.00000   0.62500
   0.62500   1.00000   0.62500
   0.75000   1.00000   0.62500
   0.87500   1.00000   0.62500
   1.00000   1.00000   0.62500
   0.00000   1.00000   0.75000
   0.12500   1.00000   0.75000
   0.25000   1.00000   0.75000
   0.37500   1.00000   0.75000
   0.50000   1.00000   0.75000
   0.62500   1.00000   0.75000
   0.75000   1.00000   0.75000
   0.87500   1.00000   0.75000
   1.00000   1.00000   0.75000
   0.00000   1.00000   0.87500
   0.12500   1.00000   0.87500
   0.25000   1.00000   0.87500
   0.37500   1.00000   0.87500
   0.50000   1.00000   0.87500
   0.62500   1.00000   0.87500
   0.75000   1.00000   0.87500
   0.87500   1.00000   0.87500
   1.00000   1.00000   0.87500
   0.00000   1.00000   1.00000
   0.12500   1.00000   1.00000
   0.25000   1.00000   1.00000
   0.37500   1.00000   1.00000
   0.50000   1.00000   1.00000
   0.62500   1.00000   1.00000
   0.75000   1.00000   1.00000
   0.87500   1.00000   1.00000
   1.00000   1.00000   1.00000
CELL_DATA   64
SCALARS CellValues float 1
LOOKUP_TABLE default
   0.00000   0.00000   0.00000   0.00000   0.00000   0.00000   0.00000  -0.00000
   0.00000   0.00000   0.00000   0.00000   0.00000   0.00000  -0.00000  -0.00000
   0.00000   0.00000   0.00000   0.00000   0.00000   0.00001   0.00000   0.00004
   0.00000   0.00000   0.00000   0.00000   0.00005   0.00002  -0.00017   0.00016
   0.00000   0.00000   0.00000   0.00005   0.00001  -0.00203  -0.00477  -0.00409
   0.00000   0.00000   0.00001   0.00002  -0.00203  -0.00792  -0.00408  -0.00189
   0.00000  -0.00000   0.00000  -0.00017  -0.00477  -0.00408   0.05247   0.09158
  -0.00000  -0.00000   0.00004   0.00016  -0.00409  -0.00189   0.09158   0.22191
