# vtk DataFile Version 3.0
VTK output from Fortran
ASCII
DATASET STRUCTURED_GRID
DIMENSIONS    1   17   17
POINTS  289 float
   1.00000   0.00000   0.00000
   1.00000   0.06250   0.00000
   1.00000   0.12500   0.00000
   1.00000   0.18750   0.00000
   1.00000   0.25000   0.00000
   1.00000   0.31250   0.00000
   1.00000   0.37500   0.00000
   1.00000   0.43750   0.00000
   1.00000   0.50000   0.00000
   1.00000   0.56250   0.00000
   1.00000   0.62500   0.00000
   1.00000   0.68750   0.00000
   1.00000   0.75000   0.00000
   1.00000   0.81250   0.00000
   1.00000   0.87500   0.00000
   1.00000   0.93750   0.00000
   1.00000   1.00000   0.00000
   1.00000   0.00000   0.06250
   1.00000   0.06250   0.06250
   1.00000   0.12500   0.06250
   1.00000   0.18750   0.06250
   1.00000   0.25000   0.06250
   1.00000   0.31250   0.06250
   1.00000   0.37500   0.06250
   1.00000   0.43750   0.06250
   1.00000   0.50000   0.06250
   1.00000   0.56250   0.06250
   1.00000   0.62500   0.06250
   1.00000   0.68750   0.06250
   1.00000   0.75000   0.06250
   1.00000   0.81250   0.06250
   1.00000   0.87500   0.06250
   1.00000   0.93750   0.06250
   1.00000   1.00000   0.06250
   1.00000   0.00000   0.12500
   1.00000   0.06250   0.12500
   1.00000   0.12500   0.12500
   1.00000   0.18750   0.12500
   1.00000   0.25000   0.12500
   1.00000   0.31250   0.12500
   1.00000   0.37500   0.12500
   1.00000   0.43750   0.12500
   1.00000   0.50000   0.12500
   1.00000   0.56250   0.12500
   1.00000   0.62500   0.12500
   1.00000   0.68750   0.12500
   1.00000   0.75000   0.12500
   1.00000   0.81250   0.12500
   1.00000   0.87500   0.12500
   1.00000   0.93750   0.12500
   1.00000   1.00000   0.12500
   1.00000   0.00000   0.18750
   1.00000   0.06250   0.18750
   1.00000   0.12500   0.18750
   1.00000   0.18750   0.18750
   1.00000   0.25000   0.18750
   1.00000   0.31250   0.18750
   1.00000   0.37500   0.18750
   1.00000   0.43750   0.18750
   1.00000   0.50000   0.18750
   1.00000   0.56250   0.18750
   1.00000   0.62500   0.18750
   1.00000   0.68750   0.18750
   1.00000   0.75000   0.18750
   1.00000   0.81250   0.18750
   1.00000   0.87500   0.18750
   1.00000   0.93750   0.18750
   1.00000   1.00000   0.18750
   1.00000   0.00000   0.25000
   1.00000   0.06250   0.25000
   1.00000   0.12500   0.25000
   1.00000   0.18750   0.25000
   1.00000   0.25000   0.25000
   1.00000   0.31250   0.25000
   1.00000   0.37500   0.25000
   1.00000   0.43750   0.25000
   1.00000   0.50000   0.25000
   1.00000   0.56250   0.25000
   1.00000   0.62500   0.25000
   1.00000   0.68750   0.25000
   1.00000   0.75000   0.25000
   1.00000   0.81250   0.25000
   1.00000   0.87500   0.25000
   1.00000   0.93750   0.25000
   1.00000   1.00000   0.25000
   1.00000   0.00000   0.31250
   1.00000   0.06250   0.31250
   1.00000   0.12500   0.31250
   1.00000   0.18750   0.31250
   1.00000   0.25000   0.31250
   1.00000   0.31250   0.31250
   1.00000   0.37500   0.31250
   1.00000   0.43750   0.31250
   1.00000   0.50000   0.31250
   1.00000   0.56250   0.31250
   1.00000   0.62500   0.31250
   1.00000   0.68750   0.31250
   1.00000   0.75000   0.31250
   1.00000   0.81250   0.31250
   1.00000   0.87500   0.31250
   1.00000   0.93750   0.31250
   1.00000   1.00000   0.31250
   1.00000   0.00000   0.37500
   1.00000   0.06250   0.37500
   1.00000   0.12500   0.37500
   1.00000   0.18750   0.37500
   1.00000   0.25000   0.37500
   1.00000   0.31250   0.37500
   1.00000   0.37500   0.37500
   1.00000   0.43750   0.37500
   1.00000   0.50000   0.37500
   1.00000   0.56250   0.37500
   1.00000   0.62500   0.37500
   1.00000   0.68750   0.37500
   1.00000   0.75000   0.37500
   1.00000   0.81250   0.37500
   1.00000   0.87500   0.37500
   1.00000   0.93750   0.37500
   1.00000   1.00000   0.37500
   1.00000   0.00000   0.43750
   1.00000   0.06250   0.43750
   1.00000   0.12500   0.43750
   1.00000   0.18750   0.43750
   1.00000   0.25000   0.43750
   1.00000   0.31250   0.43750
   1.00000   0.37500   0.43750
   1.00000   0.43750   0.43750
   1.00000   0.50000   0.43750
   1.00000   0.56250   0.43750
   1.00000   0.62500   0.43750
   1.00000   0.68750   0.43750
   1.00000   0.75000   0.43750
   1.00000   0.81250   0.43750
   1.00000   0.87500   0.43750
   1.00000   0.93750   0.43750
   1.00000   1.00000   0.43750
   1.00000   0.00000   0.50000
   1.00000   0.06250   0.50000
   1.00000   0.12500   0.50000
   1.00000   0.18750   0.50000
   1.00000   0.25000   0.50000
   1.00000   0.31250   0.50000
   1.00000   0.37500   0.50000
   1.00000   0.43750   0.50000
   1.00000   0.50000   0.50000
   1.00000   0.56250   0.50000
   1.00000   0.62500   0.50000
   1.00000   0.68750   0.50000
   1.00000   0.75000   0.50000
   1.00000   0.81250   0.50000
   1.00000   0.87500   0.50000
   1.00000   0.93750   0.50000
   1.00000   1.00000   0.50000
   1.00000   0.00000   0.56250
   1.00000   0.06250   0.56250
   1.00000   0.12500   0.56250
   1.00000   0.18750   0.56250
   1.00000   0.25000   0.56250
   1.00000   0.31250   0.56250
   1.00000   0.37500   0.56250
   1.00000   0.43750   0.56250
   1.00000   0.50000   0.56250
   1.00000   0.56250   0.56250
   1.00000   0.62500   0.56250
   1.00000   0.68750   0.56250
   1.00000   0.75000   0.56250
   1.00000   0.81250   0.56250
   1.00000   0.87500   0.56250
   1.00000   0.93750   0.56250
   1.00000   1.00000   0.56250
   1.00000   0.00000   0.62500
   1.00000   0.06250   0.62500
   1.00000   0.12500   0.62500
   1.00000   0.18750   0.62500
   1.00000   0.25000   0.62500
   1.00000   0.31250   0.62500
   1.00000   0.37500   0.62500
   1.00000   0.43750   0.62500
   1.00000   0.50000   0.62500
   1.00000   0.56250   0.62500
   1.00000   0.62500   0.62500
   1.00000   0.68750   0.62500
   1.00000   0.75000   0.62500
   1.00000   0.81250   0.62500
   1.00000   0.87500   0.62500
   1.00000   0.93750   0.62500
   1.00000   1.00000   0.62500
   1.00000   0.00000   0.68750
   1.00000   0.06250   0.68750
   1.00000   0.12500   0.68750
   1.00000   0.18750   0.68750
   1.00000   0.25000   0.68750
   1.00000   0.31250   0.68750
   1.00000   0.37500   0.68750
   1.00000   0.43750   0.68750
   1.00000   0.50000   0.68750
   1.00000   0.56250   0.68750
   1.00000   0.62500   0.68750
   1.00000   0.68750   0.68750
   1.00000   0.75000   0.68750
   1.00000   0.81250   0.68750
   1.00000   0.87500   0.68750
   1.00000   0.93750   0.68750
   1.00000   1.00000   0.68750
   1.00000   0.00000   0.75000
   1.00000   0.06250   0.75000
   1.00000   0.12500   0.75000
   1.00000   0.18750   0.75000
   1.00000   0.25000   0.75000
   1.00000   0.31250   0.75000
   1.00000   0.37500   0.75000
   1.00000   0.43750   0.75000
   1.00000   0.50000   0.75000
   1.00000   0.56250   0.75000
   1.00000   0.62500   0.75000
   1.00000   0.68750   0.75000
   1.00000   0.75000   0.75000
   1.00000   0.81250   0.75000
   1.00000   0.87500   0.75000
   1.00000   0.93750   0.75000
   1.00000   1.00000   0.75000
   1.00000   0.00000   0.81250
   1.00000   0.06250   0.81250
   1.00000   0.12500   0.81250
   1.00000   0.18750   0.81250
   1.00000   0.25000   0.81250
   1.00000   0.31250   0.81250
   1.00000   0.37500   0.81250
   1.00000   0.43750   0.81250
   1.00000   0.50000   0.81250
   1.00000   0.56250   0.81250
   1.00000   0.62500   0.81250
   1.00000   0.68750   0.81250
   1.00000   0.75000   0.81250
   1.00000   0.81250   0.81250
   1.00000   0.87500   0.81250
   1.00000   0.93750   0.81250
   1.00000   1.00000   0.81250
   1.00000   0.00000   0.87500
   1.00000   0.06250   0.87500
   1.00000   0.12500   0.87500
   1.00000   0.18750   0.87500
   1.00000   0.25000   0.87500
   1.00000   0.31250   0.87500
   1.00000   0.37500   0.87500
   1.00000   0.43750   0.87500
   1.00000   0.50000   0.87500
   1.00000   0.56250   0.87500
   1.00000   0.62500   0.87500
   1.00000   0.68750   0.87500
   1.00000   0.75000   0.87500
   1.00000   0.81250   0.87500
   1.00000   0.87500   0.87500
   1.00000   0.93750   0.87500
   1.00000   1.00000   0.87500
   1.00000   0.00000   0.93750
   1.00000   0.06250   0.93750
   1.00000   0.12500   0.93750
   1.00000   0.18750   0.93750
   1.00000   0.25000   0.93750
   1.00000   0.31250   0.93750
   1.00000   0.37500   0.93750
   1.00000   0.43750   0.93750
   1.00000   0.50000   0.93750
   1.00000   0.56250   0.93750
   1.00000   0.62500   0.93750
   1.00000   0.68750   0.93750
   1.00000   0.75000   0.93750
   1.00000   0.81250   0.93750
   1.00000   0.87500   0.93750
   1.00000   0.93750   0.93750
   1.00000   1.00000   0.93750
   1.00000   0.00000   1.00000
   1.00000   0.06250   1.00000
   1.00000   0.12500   1.00000
   1.00000   0.18750   1.00000
   1.00000   0.25000   1.00000
   1.00000   0.31250   1.00000
   1.00000   0.37500   1.00000
   1.00000   0.43750   1.00000
   1.00000   0.50000   1.00000
   1.00000   0.56250   1.00000
   1.00000   0.62500   1.00000
   1.00000   0.68750   1.00000
   1.00000   0.75000   1.00000
   1.00000   0.81250   1.00000
   1.00000   0.87500   1.00000
   1.00000   0.93750   1.00000
   1.00000   1.00000   1.00000
CELL_DATA  256
SCALARS CellValues float 1
LOOKUP_TABLE default
   0.00000   0.00000   0.00000   0.00000   0.00000   0.00000   0.00000   0.00000  -0.68394  -0.59175  -0.49957  -0.40739  -0.31520  -0.22302  -0.13084  -0.03865
   0.00000   0.00000   0.00000   0.00000   0.00000   0.00000   0.00000   0.00000  -0.58491  -0.49273  -0.40055  -0.30836  -0.21618  -0.12399  -0.03181   0.06037
   0.00000   0.00000   0.00000   0.00000   0.00000   0.00000   0.00000   0.00000  -0.48589  -0.39370  -0.30152  -0.20934  -0.11715  -0.02497   0.06721   0.15940
   0.00000   0.00000   0.00000   0.00000   0.00000   0.00000   0.00000   0.00000  -0.38686  -0.29468  -0.20250  -0.11031  -0.01813   0.07406   0.16624   0.25842
   0.00000   0.00000   0.00000   0.00000   0.00000   0.00000   0.00000   0.00000  -0.28784  -0.19565  -0.10347  -0.01129   0.08090   0.17308   0.26526   0.35745
   0.00000   0.00000   0.00000   0.00000   0.00000   0.00000   0.00000   0.00000  -0.18881  -0.09663  -0.00445   0.08774   0.17992   0.27210   0.36429   0.45647
   0.00000   0.00000   0.00000   0.00000   0.00000   0.00000   0.00000   0.00000  -0.08979   0.00239   0.09458   0.18676   0.27895   0.37113   0.46331   0.55550
   0.00000   0.00000   0.00000   0.00000   0.00000   0.00000   0.00000   0.00000   0.00924   0.10142   0.19360   0.28579   0.37797   0.47015   0.56234   0.65452
  -0.68394  -0.58491  -0.48589  -0.38686  -0.28784  -0.18881  -0.08979   0.00924   1.25913   1.25541   1.25169   1.24797   1.24425   1.24054   1.23682   1.23310
  -0.59175  -0.49273  -0.39370  -0.29468  -0.19565  -0.09663   0.00239   0.10142   1.25541   1.25169   1.24797   1.24425   1.24054   1.23682   1.23310   1.22938
  -0.49957  -0.40055  -0.30152  -0.20250  -0.10347  -0.00445   0.09458   0.19360   1.25169   1.24797   1.24425   1.24054   1.23682   1.23310   1.22938   1.22566
  -0.40739  -0.30836  -0.20934  -0.11031  -0.01129   0.08774   0.18676   0.28579   1.24797   1.24425   1.24054   1.23682   1.23310   1.22938   1.22566   1.22195
  -0.31520  -0.21618  -0.11715  -0.01813   0.08090   0.17992   0.27895   0.37797   1.24425   1.24054   1.23682   1.23310   1.22938   1.22566   1.22195   1.21823
  -0.22302  -0.12399  -0.02497   0.07406   0.17308   0.27210   0.37113   0.47015   1.24054   1.23682   1.23310   1.22938   1.22566   1.22195   1.21823   1.21451
  -0.13084  -0.03181   0.06721   0.16624   0.26526   0.36429   0.46331   0.56234   1.23682   1.23310   1.22938   1.22566   1.22195   1.21823   1.21451   1.21079
  -0.03865   0.06037   0.15940   0.25842   0.35745   0.45647   0.55550   0.65452   1.23310   1.22938   1.22566   1.22195   1.21823   1.21451   1.21079   1.20707
