# vtk DataFile Version 3.0
VTK output from Fortran
ASCII
DATASET STRUCTURED_GRID
DIMENSIONS    1    5    5
POINTS   25 float
   1.00000   0.00000   0.00000
   1.00000   0.25000   0.00000
   1.00000   0.50000   0.00000
   1.00000   0.75000   0.00000
   1.00000   1.00000   0.00000
   1.00000   0.00000   0.25000
   1.00000   0.25000   0.25000
   1.00000   0.50000   0.25000
   1.00000   0.75000   0.25000
   1.00000   1.00000   0.25000
   1.00000   0.00000   0.50000
   1.00000   0.25000   0.50000
   1.00000   0.50000   0.50000
   1.00000   0.75000   0.50000
   1.00000   1.00000   0.50000
   1.00000   0.00000   0.75000
   1.00000   0.25000   0.75000
   1.00000   0.50000   0.75000
   1.00000   0.75000   0.75000
   1.00000   1.00000   0.75000
   1.00000   0.00000   1.00000
   1.00000   0.25000   1.00000
   1.00000   0.50000   1.00000
   1.00000   0.75000   1.00000
   1.00000   1.00000   1.00000
CELL_DATA   16
SCALARS CellValues float 1
LOOKUP_TABLE default
   0.47483   0.47483   0.47483   0.47483
   0.47483   0.47483   0.47483   0.47483
   0.47483   0.47483   0.47483   0.47483
   0.47483   0.47483   0.47483   0.47483
