# vtk DataFile Version 3.0
VTK output from Fortran
ASCII
DATASET STRUCTURED_GRID
DIMENSIONS   33    1   33
POINTS 1089 float
   0.00000   1.00000   0.00000
   0.03125   1.00000   0.00000
   0.06250   1.00000   0.00000
   0.09375   1.00000   0.00000
   0.12500   1.00000   0.00000
   0.15625   1.00000   0.00000
   0.18750   1.00000   0.00000
   0.21875   1.00000   0.00000
   0.25000   1.00000   0.00000
   0.28125   1.00000   0.00000
   0.31250   1.00000   0.00000
   0.34375   1.00000   0.00000
   0.37500   1.00000   0.00000
   0.40625   1.00000   0.00000
   0.43750   1.00000   0.00000
   0.46875   1.00000   0.00000
   0.50000   1.00000   0.00000
   0.53125   1.00000   0.00000
   0.56250   1.00000   0.00000
   0.59375   1.00000   0.00000
   0.62500   1.00000   0.00000
   0.65625   1.00000   0.00000
   0.68750   1.00000   0.00000
   0.71875   1.00000   0.00000
   0.75000   1.00000   0.00000
   0.78125   1.00000   0.00000
   0.81250   1.00000   0.00000
   0.84375   1.00000   0.00000
   0.87500   1.00000   0.00000
   0.90625   1.00000   0.00000
   0.93750   1.00000   0.00000
   0.96875   1.00000   0.00000
   1.00000   1.00000   0.00000
   0.00000   1.00000   0.03125
   0.03125   1.00000   0.03125
   0.06250   1.00000   0.03125
   0.09375   1.00000   0.03125
   0.12500   1.00000   0.03125
   0.15625   1.00000   0.03125
   0.18750   1.00000   0.03125
   0.21875   1.00000   0.03125
   0.25000   1.00000   0.03125
   0.28125   1.00000   0.03125
   0.31250   1.00000   0.03125
   0.34375   1.00000   0.03125
   0.37500   1.00000   0.03125
   0.40625   1.00000   0.03125
   0.43750   1.00000   0.03125
   0.46875   1.00000   0.03125
   0.50000   1.00000   0.03125
   0.53125   1.00000   0.03125
   0.56250   1.00000   0.03125
   0.59375   1.00000   0.03125
   0.62500   1.00000   0.03125
   0.65625   1.00000   0.03125
   0.68750   1.00000   0.03125
   0.71875   1.00000   0.03125
   0.75000   1.00000   0.03125
   0.78125   1.00000   0.03125
   0.81250   1.00000   0.03125
   0.84375   1.00000   0.03125
   0.87500   1.00000   0.03125
   0.90625   1.00000   0.03125
   0.93750   1.00000   0.03125
   0.96875   1.00000   0.03125
   1.00000   1.00000   0.03125
   0.00000   1.00000   0.06250
   0.03125   1.00000   0.06250
   0.06250   1.00000   0.06250
   0.09375   1.00000   0.06250
   0.12500   1.00000   0.06250
   0.15625   1.00000   0.06250
   0.18750   1.00000   0.06250
   0.21875   1.00000   0.06250
   0.25000   1.00000   0.06250
   0.28125   1.00000   0.06250
   0.31250   1.00000   0.06250
   0.34375   1.00000   0.06250
   0.37500   1.00000   0.06250
   0.40625   1.00000   0.06250
   0.43750   1.00000   0.06250
   0.46875   1.00000   0.06250
   0.50000   1.00000   0.06250
   0.53125   1.00000   0.06250
   0.56250   1.00000   0.06250
   0.59375   1.00000   0.06250
   0.62500   1.00000   0.06250
   0.65625   1.00000   0.06250
   0.68750   1.00000   0.06250
   0.71875   1.00000   0.06250
   0.75000   1.00000   0.06250
   0.78125   1.00000   0.06250
   0.81250   1.00000   0.06250
   0.84375   1.00000   0.06250
   0.87500   1.00000   0.06250
   0.90625   1.00000   0.06250
   0.93750   1.00000   0.06250
   0.96875   1.00000   0.06250
   1.00000   1.00000   0.06250
   0.00000   1.00000   0.09375
   0.03125   1.00000   0.09375
   0.06250   1.00000   0.09375
   0.09375   1.00000   0.09375
   0.12500   1.00000   0.09375
   0.15625   1.00000   0.09375
   0.18750   1.00000   0.09375
   0.21875   1.00000   0.09375
   0.25000   1.00000   0.09375
   0.28125   1.00000   0.09375
   0.31250   1.00000   0.09375
   0.34375   1.00000   0.09375
   0.37500   1.00000   0.09375
   0.40625   1.00000   0.09375
   0.43750   1.00000   0.09375
   0.46875   1.00000   0.09375
   0.50000   1.00000   0.09375
   0.53125   1.00000   0.09375
   0.56250   1.00000   0.09375
   0.59375   1.00000   0.09375
   0.62500   1.00000   0.09375
   0.65625   1.00000   0.09375
   0.68750   1.00000   0.09375
   0.71875   1.00000   0.09375
   0.75000   1.00000   0.09375
   0.78125   1.00000   0.09375
   0.81250   1.00000   0.09375
   0.84375   1.00000   0.09375
   0.87500   1.00000   0.09375
   0.90625   1.00000   0.09375
   0.93750   1.00000   0.09375
   0.96875   1.00000   0.09375
   1.00000   1.00000   0.09375
   0.00000   1.00000   0.12500
   0.03125   1.00000   0.12500
   0.06250   1.00000   0.12500
   0.09375   1.00000   0.12500
   0.12500   1.00000   0.12500
   0.15625   1.00000   0.12500
   0.18750   1.00000   0.12500
   0.21875   1.00000   0.12500
   0.25000   1.00000   0.12500
   0.28125   1.00000   0.12500
   0.31250   1.00000   0.12500
   0.34375   1.00000   0.12500
   0.37500   1.00000   0.12500
   0.40625   1.00000   0.12500
   0.43750   1.00000   0.12500
   0.46875   1.00000   0.12500
   0.50000   1.00000   0.12500
   0.53125   1.00000   0.12500
   0.56250   1.00000   0.12500
   0.59375   1.00000   0.12500
   0.62500   1.00000   0.12500
   0.65625   1.00000   0.12500
   0.68750   1.00000   0.12500
   0.71875   1.00000   0.12500
   0.75000   1.00000   0.12500
   0.78125   1.00000   0.12500
   0.81250   1.00000   0.12500
   0.84375   1.00000   0.12500
   0.87500   1.00000   0.12500
   0.90625   1.00000   0.12500
   0.93750   1.00000   0.12500
   0.96875   1.00000   0.12500
   1.00000   1.00000   0.12500
   0.00000   1.00000   0.15625
   0.03125   1.00000   0.15625
   0.06250   1.00000   0.15625
   0.09375   1.00000   0.15625
   0.12500   1.00000   0.15625
   0.15625   1.00000   0.15625
   0.18750   1.00000   0.15625
   0.21875   1.00000   0.15625
   0.25000   1.00000   0.15625
   0.28125   1.00000   0.15625
   0.31250   1.00000   0.15625
   0.34375   1.00000   0.15625
   0.37500   1.00000   0.15625
   0.40625   1.00000   0.15625
   0.43750   1.00000   0.15625
   0.46875   1.00000   0.15625
   0.50000   1.00000   0.15625
   0.53125   1.00000   0.15625
   0.56250   1.00000   0.15625
   0.59375   1.00000   0.15625
   0.62500   1.00000   0.15625
   0.65625   1.00000   0.15625
   0.68750   1.00000   0.15625
   0.71875   1.00000   0.15625
   0.75000   1.00000   0.15625
   0.78125   1.00000   0.15625
   0.81250   1.00000   0.15625
   0.84375   1.00000   0.15625
   0.87500   1.00000   0.15625
   0.90625   1.00000   0.15625
   0.93750   1.00000   0.15625
   0.96875   1.00000   0.15625
   1.00000   1.00000   0.15625
   0.00000   1.00000   0.18750
   0.03125   1.00000   0.18750
   0.06250   1.00000   0.18750
   0.09375   1.00000   0.18750
   0.12500   1.00000   0.18750
   0.15625   1.00000   0.18750
   0.18750   1.00000   0.18750
   0.21875   1.00000   0.18750
   0.25000   1.00000   0.18750
   0.28125   1.00000   0.18750
   0.31250   1.00000   0.18750
   0.34375   1.00000   0.18750
   0.37500   1.00000   0.18750
   0.40625   1.00000   0.18750
   0.43750   1.00000   0.18750
   0.46875   1.00000   0.18750
   0.50000   1.00000   0.18750
   0.53125   1.00000   0.18750
   0.56250   1.00000   0.18750
   0.59375   1.00000   0.18750
   0.62500   1.00000   0.18750
   0.65625   1.00000   0.18750
   0.68750   1.00000   0.18750
   0.71875   1.00000   0.18750
   0.75000   1.00000   0.18750
   0.78125   1.00000   0.18750
   0.81250   1.00000   0.18750
   0.84375   1.00000   0.18750
   0.87500   1.00000   0.18750
   0.90625   1.00000   0.18750
   0.93750   1.00000   0.18750
   0.96875   1.00000   0.18750
   1.00000   1.00000   0.18750
   0.00000   1.00000   0.21875
   0.03125   1.00000   0.21875
   0.06250   1.00000   0.21875
   0.09375   1.00000   0.21875
   0.12500   1.00000   0.21875
   0.15625   1.00000   0.21875
   0.18750   1.00000   0.21875
   0.21875   1.00000   0.21875
   0.25000   1.00000   0.21875
   0.28125   1.00000   0.21875
   0.31250   1.00000   0.21875
   0.34375   1.00000   0.21875
   0.37500   1.00000   0.21875
   0.40625   1.00000   0.21875
   0.43750   1.00000   0.21875
   0.46875   1.00000   0.21875
   0.50000   1.00000   0.21875
   0.53125   1.00000   0.21875
   0.56250   1.00000   0.21875
   0.59375   1.00000   0.21875
   0.62500   1.00000   0.21875
   0.65625   1.00000   0.21875
   0.68750   1.00000   0.21875
   0.71875   1.00000   0.21875
   0.75000   1.00000   0.21875
   0.78125   1.00000   0.21875
   0.81250   1.00000   0.21875
   0.84375   1.00000   0.21875
   0.87500   1.00000   0.21875
   0.90625   1.00000   0.21875
   0.93750   1.00000   0.21875
   0.96875   1.00000   0.21875
   1.00000   1.00000   0.21875
   0.00000   1.00000   0.25000
   0.03125   1.00000   0.25000
   0.06250   1.00000   0.25000
   0.09375   1.00000   0.25000
   0.12500   1.00000   0.25000
   0.15625   1.00000   0.25000
   0.18750   1.00000   0.25000
   0.21875   1.00000   0.25000
   0.25000   1.00000   0.25000
   0.28125   1.00000   0.25000
   0.31250   1.00000   0.25000
   0.34375   1.00000   0.25000
   0.37500   1.00000   0.25000
   0.40625   1.00000   0.25000
   0.43750   1.00000   0.25000
   0.46875   1.00000   0.25000
   0.50000   1.00000   0.25000
   0.53125   1.00000   0.25000
   0.56250   1.00000   0.25000
   0.59375   1.00000   0.25000
   0.62500   1.00000   0.25000
   0.65625   1.00000   0.25000
   0.68750   1.00000   0.25000
   0.71875   1.00000   0.25000
   0.75000   1.00000   0.25000
   0.78125   1.00000   0.25000
   0.81250   1.00000   0.25000
   0.84375   1.00000   0.25000
   0.87500   1.00000   0.25000
   0.90625   1.00000   0.25000
   0.93750   1.00000   0.25000
   0.96875   1.00000   0.25000
   1.00000   1.00000   0.25000
   0.00000   1.00000   0.28125
   0.03125   1.00000   0.28125
   0.06250   1.00000   0.28125
   0.09375   1.00000   0.28125
   0.12500   1.00000   0.28125
   0.15625   1.00000   0.28125
   0.18750   1.00000   0.28125
   0.21875   1.00000   0.28125
   0.25000   1.00000   0.28125
   0.28125   1.00000   0.28125
   0.31250   1.00000   0.28125
   0.34375   1.00000   0.28125
   0.37500   1.00000   0.28125
   0.40625   1.00000   0.28125
   0.43750   1.00000   0.28125
   0.46875   1.00000   0.28125
   0.50000   1.00000   0.28125
   0.53125   1.00000   0.28125
   0.56250   1.00000   0.28125
   0.59375   1.00000   0.28125
   0.62500   1.00000   0.28125
[...]
CELL_DATA 1024
SCALARS CellValues float 1
LOOKUP_TABLE default
  -0.00000  -0.00000   0.00000   0.00000  -0.00000  -0.00000   0.00000   0.00000   0.00000   0.00000   0.00000  -0.00000   0.00000  -0.00000   0.00000  -0.00000   0.00000  -0.00000   0.00000  -0.00000   0.00000  -0.00000   0.00000  -0.00000   0.00000  -0.00000   0.00000  -0.00000   0.00000  -0.00000   0.00000   0.00000
  -0.00000   0.00000   0.00000  -0.00000   0.00000   0.00000   0.00000  -0.00000  -0.00000  -0.00000  -0.00000  -0.00000  -0.00000  -0.00000  -0.00000  -0.00000  -0.00000  -0.00000   0.00000   0.00000  -0.00000   0.00000  -0.00000   0.00000  -0.00000  -0.00000   0.00000  -0.00000   0.00000  -0.00000   0.00000  -0.00000
   0.00000   0.00000  -0.00000   0.00000   0.00000  -0.00000  -0.00000  -0.00000  -0.00000   0.00000   0.00000   0.00000   0.00000   0.00000   0.00000   0.00000   0.00000  -0.00000  -0.00000   0.00000  -0.00000   0.00000  -0.00000   0.00000  -0.00000   0.00000  -0.00000   0.00000   0.00000  -0.00000   0.00000  -0.00000
   0.00000  -0.00000   0.00000   0.00000  -0.00000  -0.00000  -0.00000   0.00000   0.00000   0.00000   0.00000  -0.00000   0.00000  -0.00000   0.00000   0.00000   0.00000   0.00000  -0.00000   0.00000  -0.00000   0.00000  -0.00000   0.00000  -0.00000   0.00000  -0.00000   0.00000  -0.00000   0.00000  -0.00000   0.00000
  -0.00000   0.00000   0.00000  -0.00000  -0.00000   0.00000   0.00000   0.00000  -0.00000  -0.00000  -0.00000  -0.00000  -0.00000  -0.00000  -0.00000  -0.00000  -0.00000   0.00000  -0.00000   0.00000   0.00000  -0.00000   0.00000  -0.00000   0.00000  -0.00000  -0.00000   0.00000  -0.00000   0.00000   0.00000  -0.00000
  -0.00000   0.00000  -0.00000  -0.00000   0.00000   0.00000   0.00000  -0.00001  -0.00001  -0.00000   0.00001   0.00001   0.00003   0.00001   0.00001  -0.00000  -0.00001   0.00000   0.00000  -0.00000   0.00000  -0.00000   0.00000  -0.00000   0.00000  -0.00000   0.00000   0.00000  -0.00000   0.00000  -0.00000   0.00000
   0.00000   0.00000  -0.00000  -0.00000   0.00000   0.00000  -0.00001  -0.00002   0.00003   0.00017   0.00017   0.00015   0.00020   0.00005   0.00015   0.00011  -0.00004  -0.00000   0.00000  -0.00000   0.00000  -0.00000   0.00000  -0.00000   0.00000  -0.00000   0.00000  -0.00000   0.00000   0.00000  -0.00000  -0.00000
   0.00000  -0.00000  -0.00000   0.00000   0.00000  -0.00001  -0.00002   0.00007   0.00045   0.00044  -0.00065  -0.00099  -0.00069  -0.00142  -0.00029   0.00055  -0.00002  -0.00004   0.00001  -0.00000   0.00000  -0.00000   0.00000  -0.00000   0.00000  -0.00000   0.00000  -0.00000   0.00000  -0.00000  -0.00000   0.00000
   0.00000  -0.00000  -0.00000   0.00000  -0.00000  -0.00001   0.00003   0.00045   0.00054  -0.00275  -0.00758  -0.00464  -0.00122  -0.00665  -0.00451   0.00088   0.00029  -0.00013   0.00002  -0.00000  -0.00000   0.00000  -0.00000   0.00000  -0.00000   0.00000   0.00000  -0.00000   0.00000  -0.00000   0.00000  -0.00000
   0.00000  -0.00000   0.00000   0.00000  -0.00000  -0.00000   0.00017   0.00044  -0.00275  -0.01301  -0.01332   0.01662   0.03171   0.00027  -0.01224  -0.00024   0.00103  -0.00022   0.00001   0.00000  -0.00000   0.00000  -0.00000   0.00000  -0.00000   0.00000  -0.00000   0.00000   0.00000  -0.00000   0.00000   0.00000
   0.00000  -0.00000   0.00000   0.00000  -0.00000   0.00001   0.00017  -0.00065  -0.00758  -0.01332   0.02791   0.12634   0.15133   0.04875  -0.01511  -0.00344   0.00174  -0.00023  -0.00001   0.00001  -0.00000   0.00000  -0.00000   0.00000  -0.00000   0.00000  -0.00000   0.00000  -0.00000   0.00000   0.00000  -0.00000
  -0.00000  -0.00000   0.00000  -0.00000  -0.00000   0.00001   0.00015  -0.00099  -0.00464   0.01662   0.12634   0.28798   0.29089   0.10254  -0.01458  -0.00691   0.00200  -0.00015  -0.00003   0.00001  -0.00000   0.00000  -0.00000   0.00000  -0.00000   0.00000  -0.00000   0.00000   0.00000  -0.00000  -0.00000   0.00000
   0.00000  -0.00000   0.00000   0.00000  -0.00000   0.00003   0.00020  -0.00069  -0.00122   0.03171   0.15133   0.29089   0.25819   0.07427  -0.01962  -0.00595   0.00207  -0.00014  -0.00004   0.00001  -0.00000   0.00000  -0.00000   0.00000  -0.00000   0.00000  -0.00000   0.00000  -0.00000   0.00000   0.00000  -0.00000
  -0.00000  -0.00000   0.00000  -0.00000  -0.00000   0.00001   0.00005  -0.00142  -0.00665   0.00027   0.04875   0.10254   0.07427  -0.00073  -0.01682   0.00019   0.00147  -0.00030   0.00000   0.00001  -0.00000   0.00000  -0.00000   0.00000  -0.00000   0.00000  -0.00000  -0.00000   0.00000  -0.00000  -0.00000   0.00000
   0.00000  -0.00000   0.00000   0.00000  -0.00000   0.00001   0.00015  -0.00029  -0.00451  -0.01224  -0.01511  -0.01458  -0.01962  -0.01682  -0.00191   0.00289  -0.00006  -0.00024   0.00006  -0.00000  -0.00000   0.00000  -0.00000   0.00000  -0.00000   0.00000  -0.00000   0.00000  -0.00000   0.00000   0.00000  -0.00000
  -0.00000  -0.00000   0.00000   0.00000  -0.00000  -0.00000   0.00011   0.00055   0.00088  -0.00024  -0.00344  -0.00691  -0.00595   0.00019   0.00289   0.00026  -0.00052   0.00007   0.00003  -0.00001   0.00000  -0.00000  -0.00000   0.00000  -0.00000   0.00000   0.00000  -0.00000   0.00000   0.00000  -0.00000   0.00000
   0.00000  -0.00000   0.00000   0.00000  -0.00000  -0.00001  -0.00004  -0.00002   0.00029   0.00103   0.00174   0.00200   0.00207   0.00147  -0.00006  -0.00052   0.00006   0.00007  -0.00003   0.00000   0.00000  -0.00000   0.00000  -0.00000  -0.00000   0.00000  -0.00000   0.00000   0.00000  -0.00000   0.00000  -0.00000
  -0.00000  -0.00000  -0.00000   0.00000   0.00000   0.00000  -0.00000  -0.00004  -0.00013  -0.00022  -0.00023  -0.00015  -0.00014  -0.00030  -0.00024   0.00007   0.00007  -0.00003  -0.00000   0.00000  -0.00000   0.00000   0.00000  -0.00000   0.00000  -0.00000   0.00000   0.00000  -0.00000   0.00000  -0.00000   0.00000
   0.00000   0.00000  -0.00000  -0.00000  -0.00000   0.00000   0.00000   0.00001   0.00002   0.00001  -0.00001  -0.00003  -0.00004   0.00000   0.00006   0.00003  -0.00003  -0.00000   0.00001  -0.00000   0.00000   0.00000  -0.00000   0.00000  -0.00000  -0.00000   0.00000  -0.00000   0.00000  -0.00000   0.00000  -0.00000
  -0.00000   0.00000   0.00000   0.00000   0.00000  -0.00000  -0.00000  -0.00000  -0.00000   0.00000   0.00001   0.00001   0.00001   0.00001  -0.00000  -0.00001   0.00000   0.00000  -0.00000  -0.00000   0.00000  -0.00000   0.00000   0.00000  -0.00000   0.00000  -0.00000   0.00000   0.00000  -0.00000   0.00000  -0.00000
   0.00000  -0.00000  -0.00000  -0.00000   0.00000   0.00000   0.00000   0.00000  -0.00000  -0.00000  -0.00000  -0.00000  -0.00000  -0.00000  -0.00000   0.00000   0.00000  -0.00000   0.00000   0.00000  -0.00000   0.00000   0.00000  -0.00000   0.00000  -0.00000   0.00000   0.00000  -0.00000   0.00000  -0.00000   0.00000
  -0.00000   0.00000   0.00000   0.00000  -0.00000  -0.00000  -0.00000  -0.00000   0.00000   0.00000   0.00000   0.00000   0.00000   0.00000   0.00000  -0.00000  -0.00000   0.00000   0.00000  -0.00000   0.00000   0.00000  -0.00000   0.00000  -0.00000   0.00000   0.00000  -0.00000   0.00000  -0.00000   0.00000   0.00000
   0.00000  -0.00000  -0.00000  -0.00000   0.00000   0.00000   0.00000   0.00000  -0.00000  -0.00000  -0.00000  -0.00000  -0.00000  -0.00000  -0.00000  -0.00000   0.00000   0.00000  -0.00000   0.00000   0.00000  -0.00000   0.00000  -0.00000  -0.00000   0.00000  -0.00000   0.00000  -0.00000   0.00000   0.00000  -0.00000
  -0.00000   0.00000   0.00000   0.00000  -0.00000  -0.00000  -0.00000  -0.00000   0.00000   0.00000   0.00000   0.00000   0.00000   0.00000   0.00000   0.00000  -0.00000  -0.00000   0.00000   0.00000  -0.00000   0.00000  -0.00000  -0.00000   0.00000  -0.00000   0.00000  -0.00000   0.00000   0.00000  -0.00000   0.00000
   0.00000  -0.00000  -0.00000  -0.00000   0.00000   0.00000   0.00000   0.00000  -0.00000  -0.00000  -0.00000  -0.00000  -0.00000  -0.00000  -0.00000  -0.00000  -0.00000   0.00000  -0.00000  -0.00000   0.00000  -0.00000  -0.00000   0.00000  -0.00000   0.00000  -0.00000   0.00000   0.00000  -0.00000   0.00000  -0.00000
  -0.00000  -0.00000   0.00000   0.00000  -0.00000  -0.00000  -0.00000  -0.00000   0.00000   0.00000   0.00000   0.00000   0.00000   0.00000   0.00000   0.00000   0.00000  -0.00000  -0.00000   0.00000  -0.00000   0.00000   0.00000  -0.00000   0.00000  -0.00000   0.00000   0.00000  -0.00000   0.00000  -0.00000   0.00000
   0.00000   0.00000  -0.00000  -0.00000  -0.00000   0.00000   0.00000   0.00000   0.00000  -0.00000  -0.00000  -0.00000  -0.00000  -0.00000  -0.00000   0.00000  -0.00000   0.00000   0.00000  -0.00000   0.00000   0.00000  -0.00000   0.00000  -0.00000   0.00000   0.00000  -0.00000   0.00000  -0.00000   0.00000  -0.00000
  -0.00000  -0.00000   0.00000   0.00000   0.00000   0.00000  -0.00000  -0.00000  -0.00000   0.00000   0.00000   0.00000   0.00000  -0.00000   0.00000  -0.00000   0.00000   0.00000  -0.00000   0.00000   0.00000  -0.00000   0.00000  -0.00000   0.00000   0.00000  -0.00000   0.00000  -0.00000   0.00000  -0.00000   0.00000
   0.00000   0.00000   0.00000  -0.00000  -0.00000  -0.00000   0.00000   0.00000   0.00000   0.00000  -0.00000   0.00000  -0.00000   0.00000  -0.00000   0.00000   0.00000  -0.00000   0.00000   0.00000  -0.00000   0.00000  -0.00000   0.00000   0.00000  -0.00000   0.00000  -0.00000   0.00000  -0.00000   0.00000   0.00000
  -0.00000  -0.00000  -0.00000   0.00000   0.00000   0.00000   0.00000  -0.00000  -0.00000  -0.00000   0.00000  -0.00000   0.00000  -0.00000   0.00000   0.00000  -0.00000   0.00000  -0.00000  -0.00000   0.00000  -0.00000   0.00000   0.00000  -0.00000   0.00000  -0.00000   0.00000  -0.00000   0.00000   0.00000  -0.00000
   0.00000   0.00000   0.00000  -0.00000   0.00000  -0.00000  -0.00000  -0.00000   0.00000   0.00000   0.00000  -0.00000   0.00000  -0.00000   0.00000  -0.00000   0.00000  -0.00000   0.00000   0.00000  -0.00000   0.00000   0.00000  -0.00000   0.00000  -0.00000   0.00000  -0.00000   0.00000   0.00000  -0.00000   0.00000
   0.00000  -0.00000  -0.00000   0.00000  -0.00000   0.00000  -0.00000   0.00000  -0.00000   0.00000  -0.00000   0.00000  -0.00000   0.00000  -0.00000   0.00000  -0.00000   0.00000  -0.00000  -0.00000   0.00000   0.00000  -0.00000   0.00000  -0.00000   0.00000  -0.00000   0.00000   0.00000  -0.00000   0.00000  -0.00000
