# vtk DataFile Version 3.0
VTK output from Fortran
ASCII
DATASET STRUCTURED_POINTS
DIMENSIONS    8    8    8
ORIGIN   0.00000   0.00000   0.00000
SPACING   8.00000   8.00000   8.00000
POINT_DATA        512
SCALARS scalar_data float 1
LOOKUP_TABLE default
   0.90048   0.27400   0.00000   0.00000   0.00000   0.00000   0.00000   0.00000
   0.27400   0.23171   0.00000   0.00000   0.00000   0.00000   0.00000   0.00000
   0.00000   0.00452   0.00000   0.00000   0.00000   0.00000   0.00000   0.00000
   0.00000   0.00000   0.00000   0.00000   0.00000   0.00000   0.00000   0.00000
   0.00000   0.00000   0.00000   0.00000   0.00000   0.00000   0.00000   0.00000
   0.00000   0.00000   0.00000   0.00000   0.00000   0.00000   0.00000   0.00000
   0.00000   0.00000   0.00000   0.00000   0.00000   0.00000   0.00000   0.00000
   0.00000   0.00000   0.00000   0.00000   0.00000   0.00000   0.00000   0.00000
   0.27400   0.23171   0.00000   0.00000   0.00000   0.00000   0.00000   0.00000
   0.23171   0.58092   0.00000   0.00000   0.00000   0.00000   0.00000   0.00000
   0.00452   0.17434   0.00000   0.00000   0.00000   0.00000   0.00000   0.00000
   0.00000  -0.00468   0.00000   0.00000   0.00000   0.00000   0.00000   0.00000
   0.00000   0.00000   0.00000   0.00000   0.00000   0.00000   0.00000   0.00000
   0.00000   0.00000   0.00000   0.00000   0.00000   0.00000   0.00000   0.00000
   0.00000   0.00000   0.00000   0.00000   0.00000   0.00000   0.00000   0.00000
   0.00000   0.00000   0.00000   0.00000   0.00000   0.00000   0.00000   0.00000
   0.00000   0.00452   0.00000   0.00000   0.00000   0.00000   0.00000   0.00000
   0.00903   0.17434   0.00000   0.00000   0.00000   0.00000   0.00000   0.00000
   0.00056   0.15900   0.00000   0.00000   0.00000   0.00000   0.00000   0.00000
   0.07807   0.01016   0.00000   0.00000   0.00000   0.00000   0.00000   0.00000
   0.05536   0.00091   0.00000   0.00000   0.00000   0.00000   0.00000   0.00000
   0.00000   0.00152   0.00000   0.00000   0.00000   0.00000   0.00000   0.00000
   0.00000   0.00000   0.00000   0.00000   0.00000   0.00000   0.00000   0.00000
   0.00000   0.00000   0.00000   0.00000   0.00000   0.00000   0.00000   0.00000
   0.00452   0.00000   0.00000   0.00000   0.00000   0.00000   0.00000   0.00000
   0.17434  -0.00936   0.00000   0.00000   0.00000   0.00000   0.00000   0.00000
   0.07521   0.02040   0.00000   0.00000   0.00000   0.00000   0.00000   0.00000
   0.00999   0.00514   0.00000   0.00000   0.00000   0.00000   0.00000   0.00000
   0.05452   0.04614   0.00000   0.00000   0.00000   0.00000   0.00000   0.00000
   0.00246   0.03245   0.00000   0.00000   0.00000   0.00000   0.00000   0.00000
   0.00000  -0.00061   0.00000   0.00000   0.00000   0.00000   0.00000   0.00000
   0.00000   0.00000   0.00000   0.00000   0.00000   0.00000   0.00000   0.00000
   0.00028  -0.00286   0.00000   0.00000   0.00000   0.00000   0.00000   0.00000
   0.07807   0.01012   0.00000   0.00000   0.00000   0.00000   0.00000   0.00000
   0.16607   0.10744   0.00000   0.00000   0.00000   0.00000   0.00000   0.00000
   0.05364   0.04842   0.00000   0.00000   0.00000   0.00000   0.00000   0.00000
  -0.00232   0.01096   0.00000   0.00000   0.00000   0.00000   0.00000   0.00000
   0.01382   0.03027   0.00000   0.00000   0.00000   0.00000   0.00000   0.00000
   0.00134   0.00430   0.00000   0.00000   0.00000   0.00000   0.00000   0.00000
   0.00038  -0.00050   0.00000   0.00000   0.00000   0.00000   0.00000   0.00000
   0.08093  -0.00012   0.00000   0.00000   0.00000   0.00000   0.00000   0.00000
   0.01028   0.00257   0.00000   0.00000   0.00000   0.00000   0.00000   0.00000
   0.00162   0.05017   0.00000   0.00000   0.00000   0.00000   0.00000   0.00000
   0.04654   0.09707   0.00000   0.00000   0.00000   0.00000   0.00000   0.00000
   0.01095   0.03384   0.00000   0.00000   0.00000   0.00000   0.00000   0.00000
   0.03027   0.00114   0.00000   0.00000   0.00000   0.00000   0.00000   0.00000
   0.02031   0.01057   0.00000   0.00000   0.00000   0.00000   0.00000   0.00000
  -0.00041   0.00166   0.00000   0.00000   0.00000   0.00000   0.00000   0.00000
   0.11071   0.00250   0.00000   0.00000   0.00000   0.00000   0.00000   0.00000
   0.05722   0.05035   0.00000   0.00000   0.00000   0.00000   0.00000   0.00000
  -0.00324   0.00734   0.00000   0.00000   0.00000   0.00000   0.00000   0.00000
  -0.00799   0.00936   0.00000   0.00000   0.00000   0.00000   0.00000   0.00000
   0.00214   0.02792   0.00000   0.00000   0.00000   0.00000   0.00000   0.00000
   0.02486   0.00860   0.00000   0.00000   0.00000   0.00000   0.00000   0.00000
   0.03112   0.01780   0.00000   0.00000   0.00000   0.00000   0.00000   0.00000
   0.01286   0.01237   0.00000   0.00000   0.00000   0.00000   0.00000   0.00000
   0.05471   0.00398   0.00000   0.00000   0.00000   0.00000   0.00000   0.00000
   0.05129   0.06518   0.00000   0.00000   0.00000   0.00000   0.00000   0.00000
  -0.00334   0.03767   0.00000   0.00000   0.00000   0.00000   0.00000   0.00000
   0.00933  -0.00360   0.00000   0.00000   0.00000   0.00000   0.00000   0.00000
   0.01093  -0.00452   0.00000   0.00000   0.00000   0.00000   0.00000   0.00000
   0.00852   0.00240   0.00000   0.00000   0.00000   0.00000   0.00000   0.00000
   0.01328   0.01576   0.00000   0.00000   0.00000   0.00000   0.00000   0.00000
   0.01232   0.01941   0.00000   0.00000   0.00000   0.00000   0.00000   0.00000
